# vtk DataFile Version 2.0
Contraction, Created by Gmsh 4.13.1 
ASCII
DATASET UNSTRUCTURED_GRID
POINTS 32 double
0 0 0
0.55 0 0
2 0.15 0
4 0.15 0
4 0.46 0
2 0.46 0
0.55 0.61 0
0 0.61 0
0.2749999999992638 0 0
1.033333333332148 0.04999999999987737 0
1.516666666665466 0.09999999999987583 0
2.5 0.15 0
3 0.15 0
3.5 0.15 0
3.5 0.46 0
3 0.46 0
2.5 0.46 0
1.516666666667507 0.5099999999999131 0
1.03333333333434 0.5599999999998959 0
0.2750000000007158 0.61 0
0 0.3050000000008132 0
0.4007331789351876 0.2310855391679284 0
0.7473009631649736 0.3150837695580548 0
2.25 0.305 0
3.75 0.305 0
2.75 0.305 0
3.25 0.305 0
1.739712643678585 0.305 0
0.1954158807209272 0.2047192367160496 0
1.251206896552783 0.3050000000012156 0
0.4360642553926293 0.4358023352244853 0
0.2178688858415766 0.3994345185182127 0

CELLS 62 227
2 0 8
2 8 1
2 1 9
2 9 10
2 10 2
2 2 11
2 11 12
2 12 13
2 13 3
2 3 4
2 4 14
2 14 15
2 15 16
2 16 5
2 5 17
2 17 18
2 18 6
2 6 19
2 19 7
2 7 20
2 20 0
3 10 2 27
3 5 17 27
3 1 9 22
3 21 1 22
3 18 6 22
3 22 6 30
3 21 22 30
3 8 1 21
3 7 20 31
3 3 4 24
3 11 16 23
3 15 12 26
3 12 15 25
3 16 11 25
3 13 14 26
3 5 2 23
3 14 13 24
3 22 9 29
3 20 0 28
3 18 22 29
3 19 7 31
3 0 8 28
3 9 10 29
3 17 18 29
3 2 5 27
3 17 10 27
3 6 19 30
3 8 21 28
3 10 17 29
3 21 30 31
3 28 21 31
3 20 28 31
3 30 19 31
3 2 11 23
3 13 3 24
3 4 14 24
3 16 5 23
3 11 12 25
3 12 13 26
3 14 15 26
3 15 16 25

CELL_TYPES 62
3
3
3
3
3
3
3
3
3
3
3
3
3
3
3
3
3
3
3
3
3
5
5
5
5
5
5
5
5
5
5
5
5
5
5
5
5
5
5
5
5
5
5
5
5
5
5
5
5
5
5
5
5
5
5
5
5
5
5
5
5
5

CELL_DATA 62
SCALARS CellEntityIds int 1
LOOKUP_TABLE default
1
1
1
1
1
1
1
1
1
3
1
1
1
1
1
1
1
1
1
2
2
4
4
4
4
4
4
4
4
4
4
4
4
4
4
4
4
4
4
4
4
4
4
4
4
4
4
4
4
4
4
4
4
4
4
4
4
4
4
4
4
4
